TITLE     = ""
VARIABLES = "x"
"z"
ZONE T="Cell h"
 I=129, J=1, K=1, ZONETYPE=Ordered
 DATAPACKING=POINT
 DT=(SINGLE SINGLE )
 1.57785030E+02 -7.56607067E-06
 1.57777161E+02 2.80504492E-01
 1.57751332E+02 5.78393325E-01
 1.57704186E+02 8.93464637E-01
 1.57632053E+02 1.22516627E+00
 1.57531178E+02 1.57253462E+00
 1.57397874E+02 1.93392798E+00
 1.57228469E+02 2.30716977E+00
 1.57019769E+02 2.68938254E+00
 1.56769020E+02 3.07711587E+00
 1.56474283E+02 3.46628942E+00
 1.56134699E+02 3.85235822E+00
 1.55750646E+02 4.23046757E+00
 1.55323938E+02 4.59570958E+00
 1.54857849E+02 4.94338293E+00
 1.54357032E+02 5.26931950E+00
 1.53827454E+02 5.57024459E+00
 1.53276115E+02 5.84394955E+00
 1.52710400E+02 6.08925929E+00
 1.52137913E+02 6.30634227E+00
 1.51565899E+02 6.49644984E+00
 1.51000865E+02 6.66152909E+00
 1.50448504E+02 6.80403366E+00
 1.49913356E+02 6.92670213E+00
 1.49398816E+02 7.03230438E+00
 1.48907466E+02 7.12338509E+00
 1.48440734E+02 7.20232403E+00
 1.47999339E+02 7.27114276E+00
 1.47583441E+02 7.33157261E+00
 1.47192654E+02 7.38508483E+00
 1.46826191E+02 7.43282969E+00
 1.46483117E+02 7.47574409E+00
 1.46161994E+02 7.51468689E+00
 1.45841571E+02 7.55261832E+00
 1.45501987E+02 7.59196189E+00
 1.45142835E+02 7.63282872E+00
 1.44763888E+02 7.67528146E+00
 1.44365260E+02 7.71927107E+00
 1.43947216E+02 7.76457174E+00
 1.43510843E+02 7.81048478E+00
 1.43057144E+02 7.85551295E+00
 1.42589494E+02 7.89654115E+00
 1.42108935E+02 7.92747397E+00
 1.41623061E+02 7.93644744E+00
 1.41134671E+02 7.89774699E+00
 1.40668403E+02 7.76553464E+00
 1.40257310E+02 7.51048772E+00
 1.39942949E+02 7.13962140E+00
 1.39741105E+02 6.68845662E+00
 1.39628560E+02 6.19854882E+00
 1.39572836E+02 5.69448951E+00
 1.39548341E+02 5.18814561E+00
 1.39541966E+02 4.68639632E+00
 1.39545778E+02 4.19423111E+00
 1.39554961E+02 3.71555864E+00
 1.39566537E+02 3.25338522E+00
 1.39578605E+02 2.80987221E+00
 1.39589982E+02 2.38647239E+00
 1.39599988E+02 1.98399778E+00
 1.39608302E+02 1.60272575E+00
 1.39614837E+02 1.24251267E+00
 1.39619622E+02 9.02904566E-01
 1.39622810E+02 5.83205316E-01
 1.39624569E+02 2.82557436E-01
 1.39625108E+02 7.56607067E-06
 1.39624569E+02 -2.82542289E-01
 1.39622810E+02 -5.83190206E-01
 1.39619622E+02 -9.02889493E-01
 1.39614837E+02 -1.24249759E+00
 1.39608302E+02 -1.60270817E+00
 1.39599988E+02 -1.98398256E+00
 1.39589982E+02 -2.38645717E+00
 1.39578605E+02 -2.80985714E+00
 1.39566537E+02 -3.25336749E+00
 1.39554961E+02 -3.71554327E+00
 1.39545778E+02 -4.19421604E+00
 1.39541966E+02 -4.68637859E+00
 1.39548341E+02 -5.18813024E+00
 1.39572836E+02 -5.69447414E+00
 1.39628560E+02 -6.19853345E+00
 1.39741105E+02 -6.68844184E+00
 1.39942921E+02 -7.13960899E+00
 1.40257291E+02 -7.51047767E+00
 1.40668384E+02 -7.76552991E+00
 1.41134652E+02 -7.89774463E+00
 1.41623033E+02 -7.93644744E+00
 1.42108916E+02 -7.92747397E+00
 1.42589475E+02 -7.89654411E+00
 1.43057115E+02 -7.85551295E+00
 1.43510824E+02 -7.81048715E+00
 1.43947188E+02 -7.76457410E+00
 1.44365242E+02 -7.71927344E+00
 1.44763860E+02 -7.67528146E+00
 1.45142816E+02 -7.63283108E+00
 1.45501968E+02 -7.59196425E+00
 1.45841552E+02 -7.55261832E+00
 1.46161956E+02 -7.51469457E+00
 1.46483098E+02 -7.47575177E+00
 1.46826172E+02 -7.43282969E+00
 1.47192616E+02 -7.38508778E+00
 1.47583422E+02 -7.33157793E+00
 1.47999320E+02 -7.27114513E+00
 1.48440715E+02 -7.20232639E+00
 1.48907447E+02 -7.12338745E+00
 1.49398797E+02 -7.03230674E+00
 1.49913328E+02 -6.92670745E+00
 1.50448485E+02 -6.80403839E+00
 1.51000846E+02 -6.66153441E+00
 1.51565899E+02 -6.49645516E+00
 1.52137894E+02 -6.30634995E+00
 1.52710381E+02 -6.08926698E+00
 1.53276096E+02 -5.84395724E+00
 1.53827454E+02 -5.57025463E+00
 1.54357013E+02 -5.26932955E+00
 1.54857830E+02 -4.94339298E+00
 1.55323919E+02 -4.59572199E+00
 1.55750646E+02 -4.23047998E+00
 1.56134680E+02 -3.85237063E+00
 1.56474283E+02 -3.46630183E+00
 1.56769001E+02 -3.07713094E+00
 1.57019769E+02 -2.68939761E+00
 1.57228469E+02 -2.30718499E+00
 1.57397845E+02 -1.93394305E+00
 1.57531178E+02 -1.57254969E+00
 1.57632053E+02 -1.22518393E+00
 1.57704186E+02 -8.93479784E-01
 1.57751332E+02 -5.78408435E-01
 1.57777161E+02 -2.80519639E-01
 1.57785030E+02 -7.56607067E-06
