TITLE     = ""
VARIABLES = "x"
"z"
ZONE T="Cell a"
 I=129, J=1, K=1, ZONETYPE=Ordered
 DATAPACKING=POINT
 DT=(SINGLE SINGLE )
 -4.81488311E+01 6.82588105E-01
 -4.81531129E+01 9.26507213E-01
 -4.81670909E+01 1.18581796E+00
 -4.81926936E+01 1.46096289E+00
 -4.82320497E+01 1.75212423E+00
 -4.82874637E+01 2.05919802E+00
 -4.83613376E+01 2.38171022E+00
 -4.84562248E+01 2.71870786E+00
 -4.85746106E+01 3.06868857E+00
 -4.87188334E+01 3.42954824E+00
 -4.88908998E+01 3.79851891E+00
 -4.90923333E+01 4.17219489E+00
 -4.93239539E+01 4.54659742E+00
 -4.95857178E+01 4.91729459E+00
 -4.98766142E+01 5.27960491E+00
 -5.01945928E+01 5.62884596E+00
 -5.05365873E+01 5.96060170E+00
 -5.08987554E+01 6.27101391E+00
 -5.12764834E+01 6.55687370E+00
 -5.16646741E+01 6.81592424E+00
 -5.20586210E+01 7.04696448E+00
 -5.24532417E+01 7.24967402E+00
 -5.28442446E+01 7.42451242E+00
 -5.32277435E+01 7.57277774E+00
 -5.36006429E+01 7.69619893E+00
 -5.39604675E+01 7.79685523E+00
 -5.43054500E+01 7.87706512E+00
 -5.46344478E+01 7.93913120E+00
 -5.49468117E+01 7.98534267E+00
 -5.52423415E+01 8.01784711E+00
 -5.55211641E+01 8.03862308E+00
 -5.57836896E+01 8.04947091E+00
 -5.60304941E+01 8.05199139E+00
 -5.62771961E+01 8.04709629E+00
 -5.65394092E+01 8.03375422E+00
 -5.68176068E+01 8.01036623E+00
 -5.71121406E+01 7.97512465E+00
 -5.74230545E+01 7.92604972E+00
 -5.77500555E+01 7.86099385E+00
 -5.80924308E+01 7.77769591E+00
 -5.84489257E+01 7.67385269E+00
 -5.88176996E+01 7.54723605E+00
 -5.91962331E+01 7.39579419E+00
 -5.95813334E+01 7.21784151E+00
 -5.99691725E+01 7.01223371E+00
 -6.03553127E+01 6.77849295E+00
 -6.07349936E+01 6.51703179E+00
 -6.11032450E+01 6.22916904E+00
 -6.14552580E+01 5.91722623E+00
 -6.17866238E+01 5.58442080E+00
 -6.20936269E+01 5.23472692E+00
 -6.23734748E+01 4.87263265E+00
 -6.26243951E+01 4.50287287E+00
 -6.28456506E+01 4.13014741E+00
 -6.30374659E+01 3.75885643E+00
 -6.32009005E+01 3.39291918E+00
 -6.33376388E+01 3.03564006E+00
 -6.34497605E+01 2.68965123E+00
 -6.35396288E+01 2.35692376E+00
 -6.36096750E+01 2.03882256E+00
 -6.36623060E+01 1.73616510E+00
 -6.36998069E+01 1.44932870E+00
 -6.37243160E+01 1.17832655E+00
 -6.37377618E+01 9.22895616E-01
 -6.37418922E+01 6.82585512E-01
 -6.37377618E+01 4.42275407E-01
 -6.37243160E+01 1.86844513E-01
 -6.36998069E+01 -8.41576380E-02
 -6.36623060E+01 -3.70993964E-01
 -6.36096750E+01 -6.73651611E-01
 -6.35396288E+01 -9.91752812E-01
 -6.34497605E+01 -1.32448020E+00
 -6.33376388E+01 -1.67046903E+00
 -6.32009054E+01 -2.02774846E+00
 -6.30374659E+01 -2.39368571E+00
 -6.28456506E+01 -2.76497639E+00
 -6.26243951E+01 -3.13770215E+00
 -6.23734748E+01 -3.50746162E+00
 -6.20936318E+01 -3.86955559E+00
 -6.17866238E+01 -4.21924978E+00
 -6.14552629E+01 -4.55205551E+00
 -6.11032450E+01 -4.86399588E+00
 -6.07349985E+01 -5.15185802E+00
 -6.03553127E+01 -5.41332224E+00
 -5.99691725E+01 -5.64705994E+00
 -5.95813382E+01 -5.85267079E+00
 -5.91962380E+01 -6.03062042E+00
 -5.88176996E+01 -6.18206228E+00
 -5.84489257E+01 -6.30868137E+00
 -5.80924308E+01 -6.41252214E+00
 -5.77500555E+01 -6.49582069E+00
 -5.74230545E+01 -6.56087595E+00
 -5.71121406E+01 -6.60995149E+00
 -5.68176166E+01 -6.64519246E+00
 -5.65394092E+01 -6.66858289E+00
 -5.62771961E+01 -6.68192801E+00
 -5.60304941E+01 -6.68682617E+00
 -5.57836896E+01 -6.68430263E+00
 -5.55211738E+01 -6.67345236E+00
 -5.52423415E+01 -6.65267334E+00
 -5.49468117E+01 -6.62016890E+00
 -5.46344478E+01 -6.57395804E+00
 -5.43054500E+01 -6.51188891E+00
 -5.39604675E+01 -6.43168146E+00
 -5.36006429E+01 -6.33102577E+00
 -5.32277435E+01 -6.20760397E+00
 -5.28442446E+01 -6.05933865E+00
 -5.24532417E+01 -5.88450086E+00
 -5.20586210E+01 -5.68179071E+00
 -5.16646741E+01 -5.45075047E+00
 -5.12764834E+01 -5.19169749E+00
 -5.08987554E+01 -4.90583769E+00
 -5.05365873E+01 -4.59542793E+00
 -5.01945928E+01 -4.26367219E+00
 -4.98766142E+01 -3.91442840E+00
 -4.95857178E+01 -3.55211838E+00
 -4.93239539E+01 -3.18142396E+00
 -4.90923333E+01 -2.80702143E+00
 -4.88908998E+01 -2.43334270E+00
 -4.87188334E+01 -2.06437203E+00
 -4.85746106E+01 -1.70351495E+00
 -4.84562248E+01 -1.35353165E+00
 -4.83613376E+01 -1.01653653E+00
 -4.82874637E+01 -6.94024331E-01
 -4.82320497E+01 -3.86947984E-01
 -4.81926936E+01 -9.57865614E-02
 -4.81670909E+01 1.79355731E-01
 -4.81531129E+01 4.38669036E-01
 -4.81488311E+01 6.82588105E-01
