TITLE     = ""
VARIABLES = "x"
"z"
ZONE T="Cell b"
 I=129, J=1, K=1, ZONETYPE=Ordered
 DATAPACKING=POINT
 DT=(SINGLE SINGLE )
 -2.56838170E+01 -7.64083874E-06
 -2.56887788E+01 2.49076061E-01
 -2.57049678E+01 5.13836212E-01
 -2.57346143E+01 7.94603939E-01
 -2.57802134E+01 1.09140978E+00
 -2.58443559E+01 1.40398634E+00
 -2.59296276E+01 1.73164072E+00
 -2.60387603E+01 2.07320143E+00
 -2.61743278E+01 2.42692644E+00
 -2.63386680E+01 2.79048530E+00
 -2.65336526E+01 3.16092570E+00
 -2.67605234E+01 3.53471821E+00
 -2.70197102E+01 3.90784065E+00
 -2.73107044E+01 4.27592791E+00
 -2.76319563E+01 4.63444381E+00
 -2.79808274E+01 4.97894863E+00
 -2.83537505E+01 5.30530169E+00
 -2.87462867E+01 5.60988103E+00
 -2.91534717E+01 5.88990762E+00
 -2.95703654E+01 6.14343303E+00
 -2.99913756E+01 6.36936726E+00
 -3.04117125E+01 6.56738735E+00
 -3.08269372E+01 6.73833560E+00
 -3.12331552E+01 6.88331036E+00
 -3.16272887E+01 7.00410963E+00
 -3.20069668E+01 7.10277853E+00
 -3.23704677E+01 7.18155557E+00
 -3.27167505E+01 7.24268228E+00
 -3.30452254E+01 7.28838703E+00
 -3.33558112E+01 7.32075136E+00
 -3.36487084E+01 7.34169979E+00
 -3.39243899E+01 7.35296764E+00
 -3.41835361E+01 7.35612307E+00
 -3.44425724E+01 7.35209909E+00
 -3.47178957E+01 7.33992986E+00
 -3.50100527E+01 7.31803110E+00
 -3.53194040E+01 7.28463049E+00
 -3.56460857E+01 7.23778677E+00
 -3.59898303E+01 7.17537127E+00
 -3.63499789E+01 7.09515798E+00
 -3.67252969E+01 6.99485646E+00
 -3.71139505E+01 6.87223413E+00
 -3.75134255E+01 6.72521663E+00
 -3.79204888E+01 6.55206747E+00
 -3.83312292E+01 6.35152351E+00
 -3.87411244E+01 6.12301647E+00
 -3.91452030E+01 5.86669201E+00
 -3.95383289E+01 5.58373146E+00
 -3.99153183E+01 5.27617218E+00
 -4.02714602E+01 4.94700247E+00
 -4.06026476E+01 4.59997080E+00
 -4.09056594E+01 4.23941992E+00
 -4.11783370E+01 3.87000328E+00
 -4.14196156E+01 3.49641731E+00
 -4.16294426E+01 3.12313429E+00
 -4.18087062E+01 2.75420386E+00
 -4.19590158E+01 2.39310051E+00
 -4.20824822E+01 2.04264837E+00
 -4.21815505E+01 1.70500986E+00
 -4.22588137E+01 1.38172852E+00
 -4.23168745E+01 1.07377981E+00
 -4.23582353E+01 7.81662865E-01
 -4.23852218E+01 5.05492401E-01
 -4.24000355E+01 2.45064621E-01
 -4.24045818E+01 -1.01877854E-05
 -4.24000355E+01 -2.45084991E-01
 -4.23852218E+01 -5.05512772E-01
 -4.23582353E+01 -7.81685773E-01
 -4.23168745E+01 -1.07380018E+00
 -4.22588137E+01 -1.38174881E+00
 -4.21815505E+01 -1.70503016E+00
 -4.20824822E+01 -2.04266867E+00
 -4.19590158E+01 -2.39312080E+00
 -4.18087062E+01 -2.75422445E+00
 -4.16294426E+01 -3.12315458E+00
 -4.14196156E+01 -3.49643761E+00
 -4.11783466E+01 -3.87002358E+00
 -4.09056594E+01 -4.23944022E+00
 -4.06026476E+01 -4.59999109E+00
 -4.02714602E+01 -4.94702276E+00
 -3.99153279E+01 -5.27619546E+00
 -3.95383289E+01 -5.58375175E+00
 -3.91452030E+01 -5.86671230E+00
 -3.87411244E+01 -6.12303677E+00
 -3.83312292E+01 -6.35154381E+00
 -3.79204888E+01 -6.55208777E+00
 -3.75134255E+01 -6.72523454E+00
 -3.71139505E+01 -6.87225204E+00
 -3.67252969E+01 -6.99487675E+00
 -3.63499789E+01 -7.09517589E+00
 -3.59898303E+01 -7.17539156E+00
 -3.56460857E+01 -7.23780468E+00
 -3.53194040E+01 -7.28465078E+00
 -3.50100527E+01 -7.31805140E+00
 -3.47178957E+01 -7.33995016E+00
 -3.44425820E+01 -7.35212416E+00
 -3.41835361E+01 -7.35615351E+00
 -3.39243899E+01 -7.35299570E+00
 -3.36487084E+01 -7.34171770E+00
 -3.33558112E+01 -7.32076926E+00
 -3.30452254E+01 -7.28840733E+00
 -3.27167505E+01 -7.24270258E+00
 -3.23704677E+01 -7.18157348E+00
 -3.20069668E+01 -7.10279644E+00
 -3.16272887E+01 -7.00412754E+00
 -3.12331552E+01 -6.88332827E+00
 -3.08269372E+01 -6.73835649E+00
 -3.04117125E+01 -6.56740526E+00
 -2.99913756E+01 -6.36938517E+00
 -2.95703654E+01 -6.14345094E+00
 -2.91534717E+01 -5.88992493E+00
 -2.87462867E+01 -5.60989834E+00
 -2.83537505E+01 -5.30531959E+00
 -2.79808274E+01 -4.97896654E+00
 -2.76319563E+01 -4.63446142E+00
 -2.73107044E+01 -4.27594581E+00
 -2.70197102E+01 -3.90785856E+00
 -2.67605234E+01 -3.53473343E+00
 -2.65336526E+01 -3.16094360E+00
 -2.63386680E+01 -2.79050291E+00
 -2.61743278E+01 -2.42694435E+00
 -2.60387603E+01 -2.07321934E+00
 -2.59296276E+01 -1.73165848E+00
 -2.58443559E+01 -1.40400410E+00
 -2.57802134E+01 -1.09142761E+00
 -2.57346143E+01 -7.94621772E-01
 -2.57049678E+01 -5.13854046E-01
 -2.56887788E+01 -2.49093895E-01
 -2.56838170E+01 -7.64083874E-06
