TITLE     = ""
VARIABLES = "x"
"z"
ZONE T="Cell a"
 I=129, J=1, K=1, ZONETYPE=Ordered
 DATAPACKING=POINT
 DT=(SINGLE SINGLE )
 -4.62754497E+01 -5.09389268E-06
 -4.62798002E+01 2.52168045E-01
 -4.62939788E+01 5.20262165E-01
 -4.63199290E+01 8.04740735E-01
 -4.63598667E+01 1.10581015E+00
 -4.64160937E+01 1.42339138E+00
 -4.64910933E+01 1.75701845E+00
 -4.65874299E+01 2.10574125E+00
 -4.67076681E+01 2.46804430E+00
 -4.68542194E+01 2.84178070E+00
 -4.70291516E+01 3.22412826E+00
 -4.72340789E+01 3.61159012E+00
 -4.74698847E+01 4.00006558E+00
 -4.77366025E+01 4.38498058E+00
 -4.80332581E+01 4.76147276E+00
 -4.83578123E+01 5.12466211E+00
 -4.87072135E+01 5.46992893E+00
 -4.90775076E+01 5.79317460E+00
 -4.94640003E+01 6.09103718E+00
 -4.98616200E+01 6.36117127E+00
 -5.02654240E+01 6.60221406E+00
 -5.06701449E+01 6.81375843E+00
 -5.10714322E+01 6.99627539E+00
 -5.14652172E+01 7.15108355E+00
 -5.18482906E+01 7.27995405E+00
 -5.22180547E+01 7.38504901E+00
 -5.25726946E+01 7.46877470E+00
 -5.29109593E+01 7.53353319E+00
 -5.32321898E+01 7.58170868E+00
 -5.35361423E+01 7.61554745E+00
 -5.38229364E+01 7.63712028E+00
 -5.40929732E+01 7.64830396E+00
 -5.43468448E+01 7.65078186E+00
 -5.46006114E+01 7.64549953E+00
 -5.48703235E+01 7.63136936E+00
 -5.51564681E+01 7.60671691E+00
 -5.54593700E+01 7.56966182E+00
 -5.57790723E+01 7.51813929E+00
 -5.61152692E+01 7.44991197E+00
 -5.64671967E+01 7.36263330E+00
 -5.68335367E+01 7.25390894E+00
 -5.72123694E+01 7.12144008E+00
 -5.76010876E+01 6.96310877E+00
 -5.79963625E+01 6.77719463E+00
 -5.83942591E+01 6.56253781E+00
 -5.87901692E+01 6.31869596E+00
 -5.91792311E+01 6.04614188E+00
 -5.95563161E+01 5.74630522E+00
 -5.99165004E+01 5.42164897E+00
 -6.02553000E+01 5.07555719E+00
 -6.05689517E+01 4.71218666E+00
 -6.08546378E+01 4.33622188E+00
 -6.11105916E+01 3.95258045E+00
 -6.13361109E+01 3.56612205E+00
 -6.15315015E+01 3.18139300E+00
 -6.16978712E+01 2.80242531E+00
 -6.18369822E+01 2.43260364E+00
 -6.19510122E+01 2.07462782E+00
 -6.20423871E+01 1.73049713E+00
 -6.21135997E+01 1.40159216E+00
 -6.21671047E+01 1.08873034E+00
 -6.22052325E+01 7.92276020E-01
 -6.22301511E+01 5.12226525E-01
 -6.22438330E+01 2.48291607E-01
 -6.22480307E+01 -7.64083874E-06
 -6.22438330E+01 -2.48306885E-01
 -6.22301511E+01 -5.12241821E-01
 -6.22052325E+01 -7.92291316E-01
 -6.21671047E+01 -1.08874563E+00
 -6.21135997E+01 -1.40160738E+00
 -6.20423871E+01 -1.73051235E+00
 -6.19510122E+01 -2.07464050E+00
 -6.18369822E+01 -2.43261887E+00
 -6.16978712E+01 -2.80244053E+00
 -6.15315015E+01 -3.18140822E+00
 -6.13361109E+01 -3.56613728E+00
 -6.11105916E+01 -3.95259567E+00
 -6.08546378E+01 -4.33623711E+00
 -6.05689564E+01 -4.71220188E+00
 -6.02553000E+01 -5.07557211E+00
 -5.99165004E+01 -5.42166390E+00
 -5.95563161E+01 -5.74632074E+00
 -5.91792311E+01 -6.04615740E+00
 -5.87901740E+01 -6.31870850E+00
 -5.83942591E+01 -6.56255333E+00
 -5.79963672E+01 -6.77720717E+00
 -5.76010876E+01 -6.96312191E+00
 -5.72123742E+01 -7.12145262E+00
 -5.68335367E+01 -7.25392208E+00
 -5.64671967E+01 -7.36264584E+00
 -5.61152692E+01 -7.44992451E+00
 -5.57790723E+01 -7.51815242E+00
 -5.54593700E+01 -7.56967436E+00
 -5.51564681E+01 -7.60673004E+00
 -5.48703235E+01 -7.63138189E+00
 -5.46006114E+01 -7.64551744E+00
 -5.43468448E+01 -7.65080216E+00
 -5.40929732E+01 -7.64832127E+00
 -5.38229364E+01 -7.63713282E+00
 -5.35361423E+01 -7.61555998E+00
 -5.32321898E+01 -7.58172420E+00
 -5.29109593E+01 -7.53354573E+00
 -5.25726946E+01 -7.46878723E+00
 -5.22180547E+01 -7.38505916E+00
 -5.18482906E+01 -7.27996719E+00
 -5.14652172E+01 -7.15109668E+00
 -5.10714322E+01 -6.99628792E+00
 -5.06701449E+01 -6.81377157E+00
 -5.02654240E+01 -6.60222719E+00
 -4.98616200E+01 -6.36118380E+00
 -4.94640003E+01 -6.09104971E+00
 -4.90775076E+01 -5.79318475E+00
 -4.87072135E+01 -5.46994146E+00
 -4.83578123E+01 -5.12467465E+00
 -4.80332581E+01 -4.76148529E+00
 -4.77366025E+01 -4.38499312E+00
 -4.74698847E+01 -4.00007841E+00
 -4.72340789E+01 -3.61160027E+00
 -4.70291516E+01 -3.22413841E+00
 -4.68542194E+01 -2.84179085E+00
 -4.67076776E+01 -2.46805460E+00
 -4.65874299E+01 -2.10575140E+00
 -4.64910933E+01 -1.75703129E+00
 -4.64160937E+01 -1.42340422E+00
 -4.63598667E+01 -1.10582291E+00
 -4.63199290E+01 -8.04750957E-01
 -4.62939788E+01 -5.20274887E-01
 -4.62798002E+01 -2.52180786E-01
 -4.62754497E+01 -5.09389268E-06
