TITLE     = ""
VARIABLES = "x"
"z"
ZONE T="Cell a"
 I=129, J=1, K=1, ZONETYPE=Ordered
 DATAPACKING=POINT
 DT=(SINGLE SINGLE )
 -2.80656231E+01 1.32764845E+00
 -2.80696351E+01 1.51246671E+00
 -2.80828228E+01 1.70885768E+00
 -2.81068288E+01 1.91701604E+00
 -2.81436378E+01 2.13695705E+00
 -2.81951444E+01 2.36835668E+00
 -2.82635372E+01 2.61064501E+00
 -2.83509009E+01 2.86282198E+00
 -2.84591914E+01 3.12352522E+00
 -2.85902012E+01 3.39086797E+00
 -2.87453072E+01 3.66259671E+00
 -2.89254448E+01 3.93614364E+00
 -2.91307612E+01 4.20837359E+00
 -2.93605702E+01 4.47602793E+00
 -2.96137585E+01 4.73612579E+00
 -2.98881563E+01 4.98543377E+00
 -3.01804707E+01 5.22091551E+00
 -3.04875965E+01 5.44034004E+00
 -3.08054790E+01 5.64180041E+00
 -3.11300562E+01 5.82400578E+00
 -3.14573374E+01 5.98633473E+00
 -3.17835360E+01 6.12883357E+00
 -3.21053166E+01 6.25197591E+00
 -3.24197663E+01 6.35672619E+00
 -3.27246226E+01 6.44438597E+00
 -3.30181216E+01 6.51641406E+00
 -3.32990122E+01 6.57440344E+00
 -3.35665538E+01 6.61995122E+00
 -3.38203593E+01 6.65460051E+00
 -3.40603790E+01 6.67980954E+00
 -3.42867932E+01 6.69691726E+00
 -3.44999913E+01 6.70714272E+00
 -3.47004765E+01 6.71156669E+00
 -3.49009642E+01 6.71097141E+00
 -3.51141907E+01 6.70481322E+00
 -3.53406572E+01 6.69199712E+00
 -3.55807386E+01 6.67126548E+00
 -3.58346034E+01 6.64123008E+00
 -3.61021640E+01 6.60036919E+00
 -3.63830048E+01 6.54705483E+00
 -3.66763234E+01 6.47959493E+00
 -3.69808259E+01 6.39628790E+00
 -3.72946964E+01 6.29551587E+00
 -3.76155558E+01 6.17586570E+00
 -3.79404868E+01 6.03620025E+00
 -3.82660064E+01 5.87588208E+00
 -3.85883450E+01 5.69475570E+00
 -3.89033501E+01 5.49337604E+00
 -3.92070123E+01 5.27294612E+00
 -3.94953170E+01 5.03542867E+00
 -3.97649429E+01 4.78327692E+00
 -4.00129773E+01 4.51959579E+00
 -4.02373546E+01 4.24775042E+00
 -4.04369709E+01 3.97116505E+00
 -4.06114323E+01 3.69326270E+00
 -4.07611517E+01 3.41723166E+00
 -4.08871784E+01 3.14584478E+00
 -4.09910509E+01 2.88145203E+00
 -4.10746304E+01 2.62590218E+00
 -4.11399631E+01 2.38057245E+00
 -4.11891194E+01 2.14640502E+00
 -4.12241931E+01 1.92392663E+00
 -4.12471070E+01 1.71335999E+00
 -4.12596893E+01 1.51466979E+00
 -4.12635447E+01 1.32764845E+00
 -4.12596893E+01 1.14062948E+00
 -4.12471070E+01 9.41936752E-01
 -4.12241931E+01 7.31372783E-01
 -4.11891194E+01 5.08894319E-01
 -4.11399631E+01 2.74724369E-01
 -4.10746304E+01 2.93946414E-02
 -4.09910509E+01 -2.26155214E-01
 -4.08871784E+01 -4.90547960E-01
 -4.07611517E+01 -7.61932317E-01
 -4.06114323E+01 -1.03796336E+00
 -4.04369709E+01 -1.31586564E+00
 -4.02373546E+01 -1.59245368E+00
 -4.00129773E+01 -1.86429637E+00
 -3.97649429E+01 -2.12798017E+00
 -3.94953170E+01 -2.38012925E+00
 -3.92070123E+01 -2.61764686E+00
 -3.89033501E+01 -2.83807677E+00
 -3.85883450E+01 -3.03945881E+00
 -3.82660064E+01 -3.22058251E+00
 -3.79404773E+01 -3.38090365E+00
 -3.76155558E+01 -3.52056881E+00
 -3.72946964E+01 -3.64021898E+00
 -3.69808259E+01 -3.74099131E+00
 -3.66763234E+01 -3.82429773E+00
 -3.63830048E+01 -3.89175764E+00
 -3.61021640E+01 -3.94507259E+00
 -3.58346034E+01 -3.98593585E+00
 -3.55807386E+01 -4.01597125E+00
 -3.53406572E+01 -4.03670290E+00
 -3.51141907E+01 -4.04952375E+00
 -3.49009642E+01 -4.05568490E+00
 -3.47004765E+01 -4.05628493E+00
 -3.44999913E+01 -4.05185859E+00
 -3.42867932E+01 -4.04162838E+00
 -3.40603790E+01 -4.02451532E+00
 -3.38203593E+01 -3.99930629E+00
 -3.35665538E+01 -3.96465700E+00
 -3.32990122E+01 -3.91910922E+00
 -3.30181216E+01 -3.86111984E+00
 -3.27246226E+01 -3.78908937E+00
 -3.24197663E+01 -3.70142960E+00
 -3.21053166E+01 -3.59667902E+00
 -3.17835360E+01 -3.47353698E+00
 -3.14573374E+01 -3.33103784E+00
 -3.11300562E+01 -3.16870888E+00
 -3.08054790E+01 -2.98650381E+00
 -3.04875965E+01 -2.78504314E+00
 -3.01804707E+01 -2.56561862E+00
 -2.98881563E+01 -2.33013703E+00
 -2.96137585E+01 -2.08082905E+00
 -2.93605702E+01 -1.82073118E+00
 -2.91307612E+01 -1.55307684E+00
 -2.89254448E+01 -1.28084689E+00
 -2.87453072E+01 -1.00729988E+00
 -2.85902012E+01 -7.35571296E-01
 -2.84591914E+01 -4.68228396E-01
 -2.83509009E+01 -2.07525309E-01
 -2.82635372E+01 4.46516700E-02
 -2.81951444E+01 2.86940066E-01
 -2.81436378E+01 5.18339694E-01
 -2.81068288E+01 7.38280784E-01
 -2.80828228E+01 9.46439212E-01
 -2.80696351E+01 1.14283004E+00
 -2.80656231E+01 1.32764845E+00
